<?xml version="1.0" encoding="UTF-8"?>

<!-- generated on 2026-04-24T19:32:27.524925+08:00 by Eclipse SUMO sumo 1.26.0
<sumoConfiguration xmlns:xsi="http://www.w3.org/2001/XMLSchema-instance" xsi:noNamespaceSchemaLocation="http://sumo.dlr.de/xsd/sumoConfiguration.xsd">

    <input>
        <net-file value="accident_highway.net.xml"/>
        <route-files value="tmp_routes.rou.xml"/>
    </input>

    <output>
        <fcd-output value="fcd.xml"/>
        <tripinfo-output value="tripinfo.xml"/>
        <lanechange-output value="lanechanges.xml"/>
    </output>

    <time>
        <begin value="0"/>
        <end value="360"/>
        <step-length value="0.1"/>
    </time>

    <processing>
        <collision.action value="warn"/>
        <lanechange.duration value="1.0"/>
    </processing>

    <report>
        <no-warnings value="true"/>
    </report>

    <traci_server>
        <remote-port value="62596"/>
    </traci_server>

    <gui_only>
        <gui-settings-file value="viewsettings.xml"/>
        <quit-on-end value="true"/>
        <start value="true"/>
    </gui_only>

</sumoConfiguration>
-->

<tripinfos xmlns:xsi="http://www.w3.org/2001/XMLSchema-instance" xsi:noNamespaceSchemaLocation="http://sumo.dlr.de/xsd/tripinfo_file.xsd">
    <tripinfo id="f_cav.0" depart="0.00" departLane="E0_2" departPos="4.60" departSpeed="33.33" departDelay="0.00" arrival="59.90" arrivalLane="E0_2" arrivalPos="2000.00" arrivalSpeed="33.33" duration="59.90" routeLength="1995.40" waitingTime="0.00" waitingCount="0" stopTime="0.00" timeLoss="0.00" rerouteNo="0" devices="tripinfo_f_cav.0 fcd_f_cav.0" vType="cav" speedFactor="1.06" vaporized=""/>
    <tripinfo id="f_cav.2" depart="2.00" departLane="E0_2" departPos="4.60" departSpeed="33.33" departDelay="0.00" arrival="61.90" arrivalLane="E0_2" arrivalPos="2000.00" arrivalSpeed="33.33" duration="59.90" routeLength="1995.40" waitingTime="0.00" waitingCount="0" stopTime="0.00" timeLoss="0.00" rerouteNo="0" devices="tripinfo_f_cav.2 fcd_f_cav.2" vType="cav" speedFactor="1.01" vaporized=""/>
    <tripinfo id="f_cav.3" depart="3.00" departLane="E0_0" departPos="4.60" departSpeed="33.33" departDelay="0.00" arrival="62.90" arrivalLane="E0_0" arrivalPos="2000.00" arrivalSpeed="33.33" duration="59.90" routeLength="1995.40" waitingTime="0.00" waitingCount="0" stopTime="0.00" timeLoss="0.00" rerouteNo="0" devices="tripinfo_f_cav.3 fcd_f_cav.3" vType="cav" speedFactor="1.08" vaporized=""/>
    <tripinfo id="f_cav.4" depart="4.00" departLane="E0_2" departPos="4.60" departSpeed="33.33" departDelay="0.00" arrival="63.90" arrivalLane="E0_2" arrivalPos="2000.00" arrivalSpeed="33.33" duration="59.90" routeLength="1995.40" waitingTime="0.00" waitingCount="0" stopTime="0.00" timeLoss="0.00" rerouteNo="0" devices="tripinfo_f_cav.4 fcd_f_cav.4" vType="cav" speedFactor="1.03" vaporized=""/>
    <tripinfo id="f_cav.1" depart="1.00" departLane="E0_1" departPos="4.60" departSpeed="31.27" departDelay="0.00" arrival="64.90" arrivalLane="E0_1" arrivalPos="2000.00" arrivalSpeed="31.27" duration="63.90" routeLength="1995.40" waitingTime="0.00" waitingCount="0" stopTime="0.00" timeLoss="0.00" rerouteNo="0" devices="tripinfo_f_cav.1 fcd_f_cav.1" vType="cav" speedFactor="0.94" vaporized=""/>
    <tripinfo id="f_cav.10" depart="10.00" departLane="E0_2" departPos="4.60" departSpeed="33.33" departDelay="0.00" arrival="69.90" arrivalLane="E0_2" arrivalPos="2000.00" arrivalSpeed="33.33" duration="59.90" routeLength="1995.40" waitingTime="0.00" waitingCount="0" stopTime="0.00" timeLoss="0.00" rerouteNo="0" devices="tripinfo_f_cav.10 fcd_f_cav.10" vType="cav" speedFactor="1.09" vaporized=""/>
    <tripinfo id="f_cav.11" depart="11.00" departLane="E0_0" departPos="4.60" departSpeed="33.33" departDelay="0.00" arrival="70.90" arrivalLane="E0_0" arrivalPos="2000.00" arrivalSpeed="33.33" duration="59.90" routeLength="1995.40" waitingTime="0.00" waitingCount="0" stopTime="0.00" timeLoss="0.00" rerouteNo="0" devices="tripinfo_f_cav.11 fcd_f_cav.11" vType="cav" speedFactor="1.03" vaporized=""/>
    <tripinfo id="f_cav.12" depart="12.00" departLane="E0_0" departPos="4.60" departSpeed="32.60" departDelay="0.00" arrival="72.20" arrivalLane="E0_0" arrivalPos="2000.00" arrivalSpeed="33.33" duration="60.20" routeLength="1995.40" waitingTime="0.00" waitingCount="0" stopTime="0.00" timeLoss="0.27" rerouteNo="0" devices="tripinfo_f_cav.12 fcd_f_cav.12" vType="cav" speedFactor="1.05" vaporized=""/>
    <tripinfo id="f_cav.13" depart="13.00" departLane="E0_0" departPos="4.60" departSpeed="30.07" departDelay="0.00" arrival="73.50" arrivalLane="E0_0" arrivalPos="2000.00" arrivalSpeed="33.33" duration="60.50" routeLength="1995.40" waitingTime="0.00" waitingCount="0" stopTime="0.00" timeLoss="0.54" rerouteNo="0" devices="tripinfo_f_cav.13 fcd_f_cav.13" vType="cav" speedFactor="1.12" vaporized=""/>
    <tripinfo id="f_cav.14" depart="14.00" departLane="E0_2" departPos="4.60" departSpeed="33.04" departDelay="0.00" arrival="74.40" arrivalLane="E0_2" arrivalPos="2000.00" arrivalSpeed="33.04" duration="60.40" routeLength="1995.40" waitingTime="0.00" waitingCount="0" stopTime="0.00" timeLoss="0.00" rerouteNo="0" devices="tripinfo_f_cav.14 fcd_f_cav.14" vType="cav" speedFactor="0.99" vaporized=""/>
    <tripinfo id="f_cav.5" depart="5.00" departLane="E0_1" departPos="4.60" departSpeed="27.70" departDelay="0.00" arrival="77.10" arrivalLane="E0_1" arrivalPos="2000.00" arrivalSpeed="27.70" duration="72.10" routeLength="1995.40" waitingTime="0.00" waitingCount="0" stopTime="0.00" timeLoss="0.00" rerouteNo="0" devices="tripinfo_f_cav.5 fcd_f_cav.5" vType="cav" speedFactor="0.83" vaporized=""/>
    <tripinfo id="f_cav.6" depart="6.00" departLane="E0_1" departPos="4.60" departSpeed="26.84" departDelay="0.00" arrival="78.30" arrivalLane="E0_1" arrivalPos="2000.00" arrivalSpeed="30.82" duration="72.30" routeLength="1995.40" waitingTime="0.00" waitingCount="0" stopTime="0.00" timeLoss="12.43" rerouteNo="0" devices="tripinfo_f_cav.6 fcd_f_cav.6" vType="cav" speedFactor="1.05" vaporized=""/>
    <tripinfo id="f_cav.7" depart="7.00" departLane="E0_1" departPos="4.60" departSpeed="24.29" departDelay="0.00" arrival="79.60" arrivalLane="E0_1" arrivalPos="2000.00" arrivalSpeed="29.53" duration="72.60" routeLength="1995.40" waitingTime="0.00" waitingCount="0" stopTime="0.00" timeLoss="5.00" rerouteNo="0" devices="tripinfo_f_cav.7 fcd_f_cav.7" vType="cav" speedFactor="0.89" vaporized=""/>
    <tripinfo id="f_cav.15" depart="15.00" departLane="E0_0" departPos="4.60" departSpeed="30.89" departDelay="0.00" arrival="79.60" arrivalLane="E0_0" arrivalPos="2000.00" arrivalSpeed="30.89" duration="64.60" routeLength="1995.40" waitingTime="0.00" waitingCount="0" stopTime="0.00" timeLoss="0.00" rerouteNo="0" devices="tripinfo_f_cav.15 fcd_f_cav.15" vType="cav" speedFactor="0.93" vaporized=""/>
    <tripinfo id="f_cav.17" depart="17.00" departLane="E0_2" departPos="4.60" departSpeed="31.38" departDelay="0.00" arrival="80.60" arrivalLane="E0_2" arrivalPos="2000.00" arrivalSpeed="31.38" duration="63.60" routeLength="1995.40" waitingTime="0.00" waitingCount="0" stopTime="0.00" timeLoss="0.00" rerouteNo="0" devices="tripinfo_f_cav.17 fcd_f_cav.17" vType="cav" speedFactor="0.94" vaporized=""/>
    <tripinfo id="f_cav.8" depart="8.00" departLane="E0_1" departPos="4.60" departSpeed="22.21" departDelay="0.00" arrival="80.80" arrivalLane="E0_1" arrivalPos="2000.00" arrivalSpeed="31.26" duration="72.80" routeLength="1995.40" waitingTime="0.00" waitingCount="0" stopTime="0.00" timeLoss="8.97" rerouteNo="0" devices="tripinfo_f_cav.8 fcd_f_cav.8" vType="cav" speedFactor="0.94" vaporized=""/>
    <tripinfo id="f_cav.21" depart="21.00" departLane="E0_2" departPos="4.60" departSpeed="33.33" departDelay="0.00" arrival="81.90" arrivalLane="E0_2" arrivalPos="2000.00" arrivalSpeed="32.96" duration="60.90" routeLength="1995.40" waitingTime="0.00" waitingCount="0" stopTime="0.00" timeLoss="0.97" rerouteNo="0" devices="tripinfo_f_cav.21 fcd_f_cav.21" vType="cav" speedFactor="1.01" vaporized=""/>
    <tripinfo id="f_cav.18" depart="18.00" departLane="E0_0" departPos="4.60" departSpeed="31.20" departDelay="0.00" arrival="82.00" arrivalLane="E0_0" arrivalPos="2000.00" arrivalSpeed="31.20" duration="64.00" routeLength="1995.40" waitingTime="0.00" waitingCount="0" stopTime="0.00" timeLoss="0.00" rerouteNo="0" devices="tripinfo_f_cav.18 fcd_f_cav.18" vType="cav" speedFactor="0.94" vaporized=""/>
    <tripinfo id="f_cav.9" depart="9.00" departLane="E0_1" departPos="4.60" departSpeed="20.36" departDelay="0.00" arrival="82.30" arrivalLane="E0_1" arrivalPos="2000.00" arrivalSpeed="28.56" duration="73.30" routeLength="1995.40" waitingTime="0.00" waitingCount="0" stopTime="0.00" timeLoss="3.35" rerouteNo="0" devices="tripinfo_f_cav.9 fcd_f_cav.9" vType="cav" speedFactor="0.86" vaporized=""/>
    <tripinfo id="f_cav.22" depart="22.00" departLane="E0_0" departPos="4.60" departSpeed="32.50" departDelay="0.00" arrival="83.50" arrivalLane="E0_0" arrivalPos="2000.00" arrivalSpeed="32.50" duration="61.50" routeLength="1995.40" waitingTime="0.00" waitingCount="0" stopTime="0.00" timeLoss="0.00" rerouteNo="0" devices="tripinfo_f_cav.22 fcd_f_cav.22" vType="cav" speedFactor="0.97" vaporized=""/>
    <tripinfo id="f_cav.16" depart="16.00" departLane="E0_1" departPos="4.60" departSpeed="29.28" departDelay="0.00" arrival="84.20" arrivalLane="E0_1" arrivalPos="2000.00" arrivalSpeed="29.28" duration="68.20" routeLength="1995.40" waitingTime="0.00" waitingCount="0" stopTime="0.00" timeLoss="0.00" rerouteNo="0" devices="tripinfo_f_cav.16 fcd_f_cav.16" vType="cav" speedFactor="0.88" vaporized=""/>
    <tripinfo id="f_cav.19" depart="19.00" departLane="E0_1" departPos="4.60" departSpeed="33.33" departDelay="0.00" arrival="85.40" arrivalLane="E0_1" arrivalPos="2000.00" arrivalSpeed="32.15" duration="66.40" routeLength="1995.40" waitingTime="0.00" waitingCount="0" stopTime="0.00" timeLoss="6.53" rerouteNo="0" devices="tripinfo_f_cav.19 fcd_f_cav.19" vType="cav" speedFactor="1.16" vaporized=""/>
    <tripinfo id="f_cav.20" depart="20.00" departLane="E0_1" departPos="4.60" departSpeed="32.60" departDelay="0.00" arrival="86.70" arrivalLane="E0_1" arrivalPos="2000.00" arrivalSpeed="32.93" duration="66.70" routeLength="1995.40" waitingTime="0.00" waitingCount="0" stopTime="0.00" timeLoss="6.74" rerouteNo="0" devices="tripinfo_f_cav.20 fcd_f_cav.20" vType="cav" speedFactor="1.02" vaporized=""/>
    <tripinfo id="f_cav.23" depart="23.00" departLane="E0_0" departPos="4.60" departSpeed="29.65" departDelay="0.00" arrival="90.30" arrivalLane="E0_0" arrivalPos="2000.00" arrivalSpeed="29.65" duration="67.30" routeLength="1995.40" waitingTime="0.00" waitingCount="0" stopTime="0.00" timeLoss="0.00" rerouteNo="0" devices="tripinfo_f_cav.23 fcd_f_cav.23" vType="cav" speedFactor="0.89" vaporized=""/>
    <tripinfo id="f_cav.26" depart="26.00" departLane="E0_1" departPos="4.60" departSpeed="30.57" departDelay="0.00" arrival="91.30" arrivalLane="E0_1" arrivalPos="2000.00" arrivalSpeed="30.57" duration="65.30" routeLength="1995.40" waitingTime="0.00" waitingCount="0" stopTime="0.00" timeLoss="0.00" rerouteNo="0" devices="tripinfo_f_cav.26 fcd_f_cav.26" vType="cav" speedFactor="0.92" vaporized=""/>
    <tripinfo id="f_cav.28" depart="28.00" departLane="E0_1" departPos="4.60" departSpeed="33.33" departDelay="0.00" arrival="92.60" arrivalLane="E0_1" arrivalPos="2000.00" arrivalSpeed="32.78" duration="64.60" routeLength="1995.40" waitingTime="0.00" waitingCount="0" stopTime="0.00" timeLoss="4.65" rerouteNo="0" devices="tripinfo_f_cav.28 fcd_f_cav.28" vType="cav" speedFactor="1.13" vaporized=""/>
    <tripinfo id="f_cav.25" depart="25.00" departLane="E0_0" departPos="4.60" departSpeed="29.08" departDelay="0.00" arrival="93.70" arrivalLane="E0_0" arrivalPos="2000.00" arrivalSpeed="29.08" duration="68.70" routeLength="1995.40" waitingTime="0.00" waitingCount="0" stopTime="0.00" timeLoss="0.00" rerouteNo="0" devices="tripinfo_f_cav.25 fcd_f_cav.25" vType="cav" speedFactor="0.87" vaporized=""/>
    <tripinfo id="f_cav.30" depart="30.00" departLane="E0_1" departPos="4.60" departSpeed="33.33" departDelay="0.00" arrival="93.80" arrivalLane="E0_1" arrivalPos="2000.00" arrivalSpeed="33.07" duration="63.80" routeLength="1995.40" waitingTime="0.00" waitingCount="0" stopTime="0.00" timeLoss="3.88" rerouteNo="0" devices="tripinfo_f_cav.30 fcd_f_cav.30" vType="cav" speedFactor="1.18" vaporized=""/>
    <tripinfo id="f_cav.29" depart="29.00" departLane="E0_0" departPos="4.60" departSpeed="31.04" departDelay="0.00" arrival="94.90" arrivalLane="E0_0" arrivalPos="2000.00" arrivalSpeed="31.04" duration="65.90" routeLength="1995.40" waitingTime="0.00" waitingCount="0" stopTime="0.00" timeLoss="1.58" rerouteNo="0" devices="tripinfo_f_cav.29 fcd_f_cav.29" vType="cav" speedFactor="0.93" vaporized=""/>
    <tripinfo id="f_cav.34" depart="34.00" departLane="E0_1" departPos="4.60" departSpeed="33.16" departDelay="0.00" arrival="95.00" arrivalLane="E0_1" arrivalPos="2000.00" arrivalSpeed="33.16" duration="61.00" routeLength="1995.40" waitingTime="0.00" waitingCount="0" stopTime="0.00" timeLoss="0.80" rerouteNo="0" devices="tripinfo_f_cav.34 fcd_f_cav.34" vType="cav" speedFactor="0.99" vaporized=""/>
    <tripinfo id="f_cav.31" depart="31.00" departLane="E0_0" departPos="4.60" departSpeed="33.33" departDelay="0.00" arrival="96.10" arrivalLane="E0_0" arrivalPos="2000.00" arrivalSpeed="32.70" duration="65.10" routeLength="1995.40" waitingTime="0.00" waitingCount="0" stopTime="0.00" timeLoss="5.21" rerouteNo="0" devices="tripinfo_f_cav.31 fcd_f_cav.31" vType="cav" speedFactor="1.15" vaporized=""/>
    <tripinfo id="f_cav.24" depart="24.00" departLane="E0_2" departPos="4.60" departSpeed="27.52" departDelay="0.00" arrival="96.60" arrivalLane="E0_2" arrivalPos="2000.00" arrivalSpeed="27.52" duration="72.60" routeLength="1995.40" waitingTime="0.00" waitingCount="0" stopTime="0.00" timeLoss="0.00" rerouteNo="0" devices="tripinfo_f_cav.24 fcd_f_cav.24" vType="cav" speedFactor="0.83" vaporized=""/>
    <tripinfo id="f_cav.36" depart="36.00" departLane="E0_1" departPos="4.60" departSpeed="32.44" departDelay="0.00" arrival="97.60" arrivalLane="E0_1" arrivalPos="2000.00" arrivalSpeed="32.44" duration="61.60" routeLength="1995.40" waitingTime="0.00" waitingCount="0" stopTime="0.00" timeLoss="0.00" rerouteNo="0" devices="tripinfo_f_cav.36 fcd_f_cav.36" vType="cav" speedFactor="0.97" vaporized=""/>
    <tripinfo id="f_cav.27" depart="27.00" departLane="E0_2" departPos="4.60" departSpeed="31.62" departDelay="0.00" arrival="97.80" arrivalLane="E0_2" arrivalPos="2000.00" arrivalSpeed="30.64" duration="70.80" routeLength="1995.40" waitingTime="0.00" waitingCount="0" stopTime="0.00" timeLoss="7.67" rerouteNo="0" devices="tripinfo_f_cav.27 fcd_f_cav.27" vType="cav" speedFactor="0.95" vaporized=""/>
    <tripinfo id="f_cav.37" depart="37.00" departLane="E0_1" departPos="4.60" departSpeed="31.69" departDelay="0.00" arrival="98.80" arrivalLane="E0_1" arrivalPos="2000.00" arrivalSpeed="33.14" duration="61.80" routeLength="1995.40" waitingTime="0.00" waitingCount="0" stopTime="0.00" timeLoss="1.91" rerouteNo="0" devices="tripinfo_f_cav.37 fcd_f_cav.37" vType="cav" speedFactor="1.18" vaporized=""/>
    <tripinfo id="f_cav.32" depart="32.00" departLane="E0_2" departPos="4.60" departSpeed="33.33" departDelay="0.00" arrival="99.00" arrivalLane="E0_2" arrivalPos="2000.00" arrivalSpeed="32.28" duration="67.00" routeLength="1995.40" waitingTime="0.00" waitingCount="0" stopTime="0.00" timeLoss="7.10" rerouteNo="0" devices="tripinfo_f_cav.32 fcd_f_cav.32" vType="cav" speedFactor="1.01" vaporized=""/>
    <tripinfo id="f_cav.33" depart="33.00" departLane="E0_2" departPos="4.60" departSpeed="32.60" departDelay="0.00" arrival="100.20" arrivalLane="E0_2" arrivalPos="2000.00" arrivalSpeed="32.83" duration="67.20" routeLength="1995.40" waitingTime="0.00" waitingCount="0" stopTime="0.00" timeLoss="7.29" rerouteNo="0" devices="tripinfo_f_cav.33 fcd_f_cav.33" vType="cav" speedFactor="1.17" vaporized=""/>
    <tripinfo id="f_cav.35" depart="35.00" departLane="E0_2" departPos="4.60" departSpeed="33.33" departDelay="0.00" arrival="101.40" arrivalLane="E0_2" arrivalPos="2000.00" arrivalSpeed="32.99" duration="66.40" routeLength="1995.40" waitingTime="0.00" waitingCount="0" stopTime="0.00" timeLoss="6.50" rerouteNo="0" devices="tripinfo_f_cav.35 fcd_f_cav.35" vType="cav" speedFactor="1.02" vaporized=""/>
    <tripinfo id="f_cav.38" depart="38.00" departLane="E0_2" departPos="4.60" departSpeed="33.33" departDelay="0.00" arrival="102.60" arrivalLane="E0_2" arrivalPos="2000.00" arrivalSpeed="33.06" duration="64.60" routeLength="1995.40" waitingTime="0.00" waitingCount="0" stopTime="0.00" timeLoss="4.71" rerouteNo="0" devices="tripinfo_f_cav.38 fcd_f_cav.38" vType="cav" speedFactor="1.10" vaporized=""/>
    <tripinfo id="f_cav.43" depart="43.00" departLane="E0_0" departPos="4.60" departSpeed="33.33" departDelay="0.00" arrival="102.90" arrivalLane="E0_0" arrivalPos="2000.00" arrivalSpeed="33.33" duration="59.90" routeLength="1995.40" waitingTime="0.00" waitingCount="0" stopTime="0.00" timeLoss="0.00" rerouteNo="0" devices="tripinfo_f_cav.43 fcd_f_cav.43" vType="cav" speedFactor="1.04" vaporized=""/>
    <tripinfo id="f_cav.41" depart="41.00" departLane="E0_2" departPos="4.60" departSpeed="31.90" departDelay="0.00" arrival="104.00" arrivalLane="E0_2" arrivalPos="2000.00" arrivalSpeed="31.90" duration="63.00" routeLength="1995.40" waitingTime="0.00" waitingCount="0" stopTime="0.00" timeLoss="0.42" rerouteNo="0" devices="tripinfo_f_cav.41 fcd_f_cav.41" vType="cav" speedFactor="0.96" vaporized=""/>
    <tripinfo id="f_cav.39" depart="39.00" departLane="E0_1" departPos="4.60" departSpeed="30.02" departDelay="0.00" arrival="105.50" arrivalLane="E0_1" arrivalPos="2000.00" arrivalSpeed="30.02" duration="66.50" routeLength="1995.40" waitingTime="0.00" waitingCount="0" stopTime="0.00" timeLoss="0.00" rerouteNo="0" devices="tripinfo_f_cav.39 fcd_f_cav.39" vType="cav" speedFactor="0.90" vaporized=""/>
    <tripinfo id="f_cav.40" depart="40.00" departLane="E0_1" departPos="4.60" departSpeed="29.22" departDelay="0.00" arrival="106.80" arrivalLane="E0_1" arrivalPos="2000.00" arrivalSpeed="32.61" duration="66.80" routeLength="1995.40" waitingTime="0.00" waitingCount="0" stopTime="0.00" timeLoss="6.85" rerouteNo="0" devices="tripinfo_f_cav.40 fcd_f_cav.40" vType="cav" speedFactor="1.03" vaporized=""/>
    <tripinfo id="f_cav.42" depart="42.00" departLane="E0_1" departPos="4.60" departSpeed="31.12" departDelay="0.00" arrival="108.00" arrivalLane="E0_1" arrivalPos="2000.00" arrivalSpeed="33.01" duration="66.00" routeLength="1995.40" waitingTime="0.00" waitingCount="0" stopTime="0.00" timeLoss="6.07" rerouteNo="0" devices="tripinfo_f_cav.42 fcd_f_cav.42" vType="cav" speedFactor="1.09" vaporized=""/>
    <tripinfo id="f_cav.44" depart="44.00" departLane="E0_1" departPos="4.60" departSpeed="33.33" departDelay="0.00" arrival="109.20" arrivalLane="E0_1" arrivalPos="2000.00" arrivalSpeed="33.12" duration="65.20" routeLength="1995.40" waitingTime="0.00" waitingCount="0" stopTime="0.00" timeLoss="5.30" rerouteNo="0" devices="tripinfo_f_cav.44 fcd_f_cav.44" vType="cav" speedFactor="1.04" vaporized=""/>
    <tripinfo id="f_cav.45" depart="45.00" departLane="E0_1" departPos="4.60" departSpeed="32.60" departDelay="0.00" arrival="110.40" arrivalLane="E0_1" arrivalPos="2000.00" arrivalSpeed="33.17" duration="65.40" routeLength="1995.40" waitingTime="0.00" waitingCount="0" stopTime="0.00" timeLoss="5.53" rerouteNo="0" devices="tripinfo_f_cav.45 fcd_f_cav.45" vType="cav" speedFactor="1.09" vaporized=""/>
    <tripinfo id="f_cav.51" depart="51.00" departLane="E0_2" departPos="4.60" departSpeed="33.33" departDelay="0.00" arrival="110.90" arrivalLane="E0_2" arrivalPos="2000.00" arrivalSpeed="33.33" duration="59.90" routeLength="1995.40" waitingTime="0.00" waitingCount="0" stopTime="0.00" timeLoss="0.00" rerouteNo="0" devices="tripinfo_f_cav.51 fcd_f_cav.51" vType="cav" speedFactor="1.17" vaporized=""/>
    <tripinfo id="f_cav.46" depart="46.00" departLane="E0_1" departPos="4.60" departSpeed="30.07" departDelay="0.00" arrival="111.70" arrivalLane="E0_1" arrivalPos="2000.00" arrivalSpeed="33.21" duration="65.70" routeLength="1995.40" waitingTime="0.00" waitingCount="0" stopTime="0.00" timeLoss="5.62" rerouteNo="0" devices="tripinfo_f_cav.46 fcd_f_cav.46" vType="cav" speedFactor="1.00" vaporized=""/>
    <tripinfo id="f_cav.52" depart="52.00" departLane="E0_2" departPos="4.60" departSpeed="32.60" departDelay="0.00" arrival="112.20" arrivalLane="E0_2" arrivalPos="2000.00" arrivalSpeed="33.33" duration="60.20" routeLength="1995.40" waitingTime="0.00" waitingCount="0" stopTime="0.00" timeLoss="0.27" rerouteNo="0" devices="tripinfo_f_cav.52 fcd_f_cav.52" vType="cav" speedFactor="1.02" vaporized=""/>
    <tripinfo id="f_cav.47" depart="47.00" departLane="E0_0" departPos="4.60" departSpeed="30.01" departDelay="0.00" arrival="113.50" arrivalLane="E0_0" arrivalPos="2000.00" arrivalSpeed="30.01" duration="66.50" routeLength="1995.40" waitingTime="0.00" waitingCount="0" stopTime="0.00" timeLoss="0.00" rerouteNo="0" devices="tripinfo_f_cav.47 fcd_f_cav.47" vType="cav" speedFactor="0.90" vaporized=""/>
    <tripinfo id="f_cav.53" depart="53.00" departLane="E0_2" departPos="4.60" departSpeed="30.07" departDelay="0.00" arrival="113.50" arrivalLane="E0_2" arrivalPos="2000.00" arrivalSpeed="33.33" duration="60.50" routeLength="1995.40" waitingTime="0.00" waitingCount="0" stopTime="0.00" timeLoss="0.54" rerouteNo="0" devices="tripinfo_f_cav.53 fcd_f_cav.53" vType="cav" speedFactor="1.10" vaporized=""/>
    <tripinfo id="f_cav.48" depart="48.00" departLane="E0_1" departPos="4.60" departSpeed="29.23" departDelay="0.00" arrival="116.30" arrivalLane="E0_1" arrivalPos="2000.00" arrivalSpeed="29.23" duration="68.30" routeLength="1995.40" waitingTime="0.00" waitingCount="0" stopTime="0.00" timeLoss="0.00" rerouteNo="0" devices="tripinfo_f_cav.48 fcd_f_cav.48" vType="cav" speedFactor="0.88" vaporized=""/>
    <tripinfo id="f_cav.54" depart="54.00" departLane="E0_1" departPos="4.60" departSpeed="33.33" departDelay="0.00" arrival="137.50" arrivalLane="E0_1" arrivalPos="2000.00" arrivalSpeed="16.67" duration="83.50" routeLength="1995.40" waitingTime="0.00" waitingCount="0" stopTime="0.00" timeLoss="-0.72" rerouteNo="0" devices="tripinfo_f_cav.54 fcd_f_cav.54" vType="cav@f_cav.54" speedFactor="1.00" vaporized=""/>
    <tripinfo id="f_cav.55" depart="55.00" departLane="E0_2" departPos="4.60" departSpeed="32.89" departDelay="0.00" arrival="138.30" arrivalLane="E0_2" arrivalPos="2000.00" arrivalSpeed="16.67" duration="83.30" routeLength="1995.40" waitingTime="0.00" waitingCount="0" stopTime="0.00" timeLoss="-1.77" rerouteNo="0" devices="tripinfo_f_cav.55 fcd_f_cav.55" vType="cav@f_cav.55" speedFactor="1.00" vaporized=""/>
    <tripinfo id="f_cav.49" depart="49.00" departLane="E0_0" departPos="4.60" departSpeed="28.34" departDelay="0.00" arrival="139.20" arrivalLane="E0_0" arrivalPos="2000.00" arrivalSpeed="16.67" duration="90.20" routeLength="1995.40" waitingTime="0.00" waitingCount="0" stopTime="0.00" timeLoss="-0.87" rerouteNo="0" devices="tripinfo_f_cav.49 fcd_f_cav.49" vType="cav@f_cav.49" speedFactor="0.85" vaporized=""/>
    <tripinfo id="f_cav.50" depart="50.00" departLane="E0_0" departPos="4.60" departSpeed="27.50" departDelay="0.00" arrival="141.40" arrivalLane="E0_0" arrivalPos="2000.00" arrivalSpeed="16.67" duration="91.40" routeLength="1995.40" waitingTime="0.00" waitingCount="0" stopTime="0.00" timeLoss="-0.35" rerouteNo="0" devices="tripinfo_f_cav.50 fcd_f_cav.50" vType="cav@f_cav.50" speedFactor="0.85" vaporized=""/>
    <tripinfo id="f_cav.57" depart="57.00" departLane="E0_2" departPos="4.60" departSpeed="33.33" departDelay="0.00" arrival="142.00" arrivalLane="E0_2" arrivalPos="2000.00" arrivalSpeed="16.67" duration="85.00" routeLength="1995.40" waitingTime="0.00" waitingCount="0" stopTime="0.00" timeLoss="-1.80" rerouteNo="0" devices="tripinfo_f_cav.57 fcd_f_cav.57" vType="cav@f_cav.57" speedFactor="1.14" vaporized=""/>
    <tripinfo id="f_cav.58" depart="58.00" departLane="E0_2" departPos="4.60" departSpeed="32.60" departDelay="0.00" arrival="144.50" arrivalLane="E0_2" arrivalPos="2000.00" arrivalSpeed="16.67" duration="86.50" routeLength="1995.40" waitingTime="0.00" waitingCount="0" stopTime="0.00" timeLoss="-1.53" rerouteNo="0" devices="tripinfo_f_cav.58 fcd_f_cav.58" vType="cav@f_cav.58" speedFactor="1.02" vaporized=""/>
    <tripinfo id="f_cav.60" depart="60.00" departLane="E0_2" departPos="4.60" departSpeed="33.33" departDelay="0.00" arrival="148.20" arrivalLane="E0_2" arrivalPos="2000.00" arrivalSpeed="16.67" duration="88.20" routeLength="1995.40" waitingTime="0.00" waitingCount="0" stopTime="0.00" timeLoss="-1.61" rerouteNo="0" devices="tripinfo_f_cav.60 fcd_f_cav.60" vType="cav@f_cav.60" speedFactor="1.08" vaporized=""/>
    <tripinfo id="f_cav.61" depart="61.00" departLane="E0_0" departPos="4.60" departSpeed="33.33" departDelay="0.00" arrival="150.90" arrivalLane="E0_0" arrivalPos="2000.00" arrivalSpeed="16.67" duration="89.90" routeLength="1995.40" waitingTime="0.00" waitingCount="0" stopTime="0.00" timeLoss="-0.91" rerouteNo="0" devices="tripinfo_f_cav.61 fcd_f_cav.61" vType="cav@f_cav.61" speedFactor="1.12" vaporized=""/>
    <tripinfo id="f_cav.62" depart="62.00" departLane="E0_2" departPos="4.60" departSpeed="33.33" departDelay="0.00" arrival="152.90" arrivalLane="E0_2" arrivalPos="2000.00" arrivalSpeed="16.67" duration="90.90" routeLength="1995.40" waitingTime="0.00" waitingCount="0" stopTime="0.00" timeLoss="-0.88" rerouteNo="0" devices="tripinfo_f_cav.62 fcd_f_cav.62" vType="cav@f_cav.62" speedFactor="1.02" vaporized=""/>
    <tripinfo id="f_cav.63" depart="63.00" departLane="E0_2" departPos="4.60" departSpeed="32.60" departDelay="0.00" arrival="156.00" arrivalLane="E0_2" arrivalPos="2000.00" arrivalSpeed="16.67" duration="93.00" routeLength="1995.40" waitingTime="0.00" waitingCount="0" stopTime="0.00" timeLoss="-0.67" rerouteNo="0" devices="tripinfo_f_cav.63 fcd_f_cav.63" vType="cav@f_cav.63" speedFactor="0.99" vaporized=""/>
    <tripinfo id="f_cav.68" depart="68.00" departLane="E0_2" departPos="4.60" departSpeed="33.33" departDelay="0.00" arrival="163.00" arrivalLane="E0_2" arrivalPos="2000.00" arrivalSpeed="16.67" duration="95.00" routeLength="1995.40" waitingTime="0.00" waitingCount="0" stopTime="0.00" timeLoss="-0.88" rerouteNo="0" devices="tripinfo_f_cav.68 fcd_f_cav.68" vType="cav@f_cav.68" speedFactor="1.04" vaporized=""/>
    <tripinfo id="f_cav.65" depart="65.00" departLane="E0_0" departPos="4.60" departSpeed="29.41" departDelay="0.00" arrival="164.10" arrivalLane="E0_0" arrivalPos="2000.00" arrivalSpeed="16.67" duration="99.10" routeLength="1995.40" waitingTime="0.00" waitingCount="0" stopTime="0.00" timeLoss="0.02" rerouteNo="0" devices="tripinfo_f_cav.65 fcd_f_cav.65" vType="cav@f_cav.65" speedFactor="0.88" vaporized=""/>
    <tripinfo id="f_cav.70" depart="70.00" departLane="E0_2" departPos="4.60" departSpeed="33.33" departDelay="0.00" arrival="165.90" arrivalLane="E0_2" arrivalPos="2000.00" arrivalSpeed="16.67" duration="95.90" routeLength="1995.40" waitingTime="0.00" waitingCount="0" stopTime="0.00" timeLoss="0.01" rerouteNo="0" devices="tripinfo_f_cav.70 fcd_f_cav.70" vType="cav@f_cav.70" speedFactor="1.02" vaporized=""/>
    <tripinfo id="f_cav.67" depart="67.00" departLane="E0_0" departPos="4.60" departSpeed="30.48" departDelay="0.00" arrival="166.00" arrivalLane="E0_0" arrivalPos="2000.00" arrivalSpeed="16.67" duration="99.00" routeLength="1995.40" waitingTime="0.00" waitingCount="0" stopTime="0.00" timeLoss="0.87" rerouteNo="0" devices="tripinfo_f_cav.67 fcd_f_cav.67" vType="cav@f_cav.67" speedFactor="0.91" vaporized=""/>
    <tripinfo id="f_cav.69" depart="69.00" departLane="E0_0" departPos="4.60" departSpeed="33.33" departDelay="0.00" arrival="167.80" arrivalLane="E0_0" arrivalPos="2000.00" arrivalSpeed="16.67" duration="98.80" routeLength="1995.40" waitingTime="0.00" waitingCount="0" stopTime="0.00" timeLoss="2.91" rerouteNo="0" devices="tripinfo_f_cav.69 fcd_f_cav.69" vType="cav@f_cav.69" speedFactor="1.02" vaporized=""/>
    <tripinfo id="f_cav.72" depart="72.00" departLane="E0_0" departPos="4.60" departSpeed="31.33" departDelay="0.00" arrival="170.70" arrivalLane="E0_0" arrivalPos="2000.00" arrivalSpeed="16.67" duration="98.70" routeLength="1995.40" waitingTime="0.00" waitingCount="0" stopTime="0.00" timeLoss="1.28" rerouteNo="0" devices="tripinfo_f_cav.72 fcd_f_cav.72" vType="cav@f_cav.72" speedFactor="0.94" vaporized=""/>
    <tripinfo id="f_cav.74" depart="74.00" departLane="E0_2" departPos="4.60" departSpeed="31.83" departDelay="0.00" arrival="170.70" arrivalLane="E0_2" arrivalPos="2000.00" arrivalSpeed="16.67" duration="96.70" routeLength="1995.40" waitingTime="0.00" waitingCount="0" stopTime="0.00" timeLoss="-0.22" rerouteNo="0" devices="tripinfo_f_cav.74 fcd_f_cav.74" vType="cav@f_cav.74" speedFactor="0.96" vaporized=""/>
    <tripinfo id="f_cav.73" depart="73.00" departLane="E0_0" departPos="4.60" departSpeed="30.57" departDelay="0.00" arrival="172.50" arrivalLane="E0_0" arrivalPos="2000.00" arrivalSpeed="16.67" duration="99.50" routeLength="1995.40" waitingTime="0.00" waitingCount="0" stopTime="0.00" timeLoss="3.60" rerouteNo="0" devices="tripinfo_f_cav.73 fcd_f_cav.73" vType="cav@f_cav.73" speedFactor="1.06" vaporized=""/>
    <tripinfo id="f_cav.77" depart="77.00" departLane="E0_2" departPos="4.60" departSpeed="32.73" departDelay="0.00" arrival="173.70" arrivalLane="E0_2" arrivalPos="2000.00" arrivalSpeed="16.67" duration="96.70" routeLength="1995.40" waitingTime="0.00" waitingCount="0" stopTime="0.00" timeLoss="0.39" rerouteNo="0" devices="tripinfo_f_cav.77 fcd_f_cav.77" vType="cav@f_cav.77" speedFactor="0.98" vaporized=""/>