<?xml version="1.0" encoding="UTF-8"?>

<!-- generated on 2026-04-24T23:02:10.612924+08:00 by Eclipse SUMO sumo 1.26.0
<sumoConfiguration xmlns:xsi="http://www.w3.org/2001/XMLSchema-instance" xsi:noNamespaceSchemaLocation="http://sumo.dlr.de/xsd/sumoConfiguration.xsd">

    <input>
        <net-file value="accident_highway.net.xml"/>
        <route-files value="tmp_routes.rou.xml"/>
    </input>

    <output>
        <fcd-output value="fcd.xml"/>
        <tripinfo-output value="tripinfo.xml"/>
        <lanechange-output value="lanechanges.xml"/>
    </output>

    <time>
        <begin value="0"/>
        <end value="360"/>
        <step-length value="0.1"/>
    </time>

    <processing>
        <collision.action value="warn"/>
        <lanechange.duration value="1.0"/>
    </processing>

    <report>
        <no-warnings value="true"/>
    </report>

    <traci_server>
        <remote-port value="63104"/>
    </traci_server>

    <gui_only>
        <gui-settings-file value="viewsettings.xml"/>
        <quit-on-end value="true"/>
        <start value="true"/>
    </gui_only>

</sumoConfiguration>
-->

<tripinfos xmlns:xsi="http://www.w3.org/2001/XMLSchema-instance" xsi:noNamespaceSchemaLocation="http://sumo.dlr.de/xsd/tripinfo_file.xsd">
    <tripinfo id="f_cav.0" depart="0.00" departLane="E0_2" departPos="4.60" departSpeed="33.33" departDelay="0.00" arrival="145.00" arrivalLane="E0_2" arrivalPos="4000.00" arrivalSpeed="16.67" duration="145.00" routeLength="3995.40" waitingTime="0.00" waitingCount="0" stopTime="0.00" timeLoss="-1.80" rerouteNo="0" devices="tripinfo_f_cav.0 fcd_f_cav.0" vType="cav@f_cav.0" speedFactor="1.06" vaporized=""/>
    <tripinfo id="f_cav.2" depart="2.00" departLane="E0_2" departPos="4.60" departSpeed="33.33" departDelay="0.00" arrival="149.00" arrivalLane="E0_2" arrivalPos="4000.00" arrivalSpeed="16.67" duration="147.00" routeLength="3995.40" waitingTime="0.00" waitingCount="0" stopTime="0.00" timeLoss="-1.80" rerouteNo="0" devices="tripinfo_f_cav.2 fcd_f_cav.2" vType="cav@f_cav.2" speedFactor="1.01" vaporized=""/>
    <tripinfo id="f_cav.3" depart="3.00" departLane="E0_0" departPos="4.60" departSpeed="33.33" departDelay="0.00" arrival="151.20" arrivalLane="E0_0" arrivalPos="4000.00" arrivalSpeed="16.67" duration="148.20" routeLength="3995.40" waitingTime="0.00" waitingCount="0" stopTime="0.00" timeLoss="-1.61" rerouteNo="0" devices="tripinfo_f_cav.3 fcd_f_cav.3" vType="cav@f_cav.3" speedFactor="1.08" vaporized=""/>
    <tripinfo id="f_cav.4" depart="4.00" departLane="E0_2" departPos="4.60" departSpeed="33.33" departDelay="0.00" arrival="153.90" arrivalLane="E0_2" arrivalPos="4000.00" arrivalSpeed="16.67" duration="149.90" routeLength="3995.40" waitingTime="0.00" waitingCount="0" stopTime="0.00" timeLoss="-0.91" rerouteNo="0" devices="tripinfo_f_cav.4 fcd_f_cav.4" vType="cav@f_cav.4" speedFactor="1.03" vaporized=""/>
    <tripinfo id="f_cav.10" depart="10.00" departLane="E0_2" departPos="4.60" departSpeed="33.33" departDelay="0.00" arrival="165.00" arrivalLane="E0_2" arrivalPos="4000.00" arrivalSpeed="16.67" duration="155.00" routeLength="3995.40" waitingTime="0.00" waitingCount="0" stopTime="0.00" timeLoss="-0.88" rerouteNo="0" devices="tripinfo_f_cav.10 fcd_f_cav.10" vType="cav@f_cav.10" speedFactor="1.09" vaporized=""/>
    <tripinfo id="f_cav.11" depart="11.00" departLane="E0_0" departPos="4.60" departSpeed="33.33" departDelay="0.00" arrival="167.10" arrivalLane="E0_0" arrivalPos="4000.00" arrivalSpeed="16.67" duration="156.10" routeLength="3995.40" waitingTime="0.00" waitingCount="0" stopTime="0.00" timeLoss="0.20" rerouteNo="0" devices="tripinfo_f_cav.11 fcd_f_cav.11" vType="cav@f_cav.11" speedFactor="1.03" vaporized=""/>
    <tripinfo id="f_cav.12" depart="12.00" departLane="E0_0" departPos="4.60" departSpeed="32.60" departDelay="0.00" arrival="169.00" arrivalLane="E0_0" arrivalPos="4000.00" arrivalSpeed="16.67" duration="157.00" routeLength="3995.40" waitingTime="0.00" waitingCount="0" stopTime="0.00" timeLoss="1.21" rerouteNo="0" devices="tripinfo_f_cav.12 fcd_f_cav.12" vType="cav@f_cav.12" speedFactor="1.05" vaporized=""/>
    <tripinfo id="f_cav.14" depart="14.00" departLane="E0_2" departPos="4.60" departSpeed="33.04" departDelay="0.00" arrival="170.30" arrivalLane="E0_2" arrivalPos="4000.00" arrivalSpeed="16.67" duration="156.30" routeLength="3995.40" waitingTime="0.00" waitingCount="0" stopTime="0.00" timeLoss="-0.33" rerouteNo="0" devices="tripinfo_f_cav.14 fcd_f_cav.14" vType="cav@f_cav.14" speedFactor="0.99" vaporized=""/>
    <tripinfo id="f_cav.13" depart="13.00" departLane="E0_0" departPos="4.60" departSpeed="30.07" departDelay="0.00" arrival="170.90" arrivalLane="E0_0" arrivalPos="4000.00" arrivalSpeed="16.67" duration="157.90" routeLength="3995.40" waitingTime="0.00" waitingCount="0" stopTime="0.00" timeLoss="2.06" rerouteNo="0" devices="tripinfo_f_cav.13 fcd_f_cav.13" vType="cav@f_cav.13" speedFactor="1.12" vaporized=""/>
    <tripinfo id="f_cav.17" depart="17.00" departLane="E0_2" departPos="4.60" departSpeed="31.38" departDelay="0.00" arrival="177.40" arrivalLane="E0_2" arrivalPos="4000.00" arrivalSpeed="16.67" duration="160.40" routeLength="3995.40" waitingTime="0.00" waitingCount="0" stopTime="0.00" timeLoss="-0.68" rerouteNo="0" devices="tripinfo_f_cav.17 fcd_f_cav.17" vType="cav@f_cav.17" speedFactor="0.94" vaporized=""/>
    <tripinfo id="f_cav.15" depart="15.00" departLane="E0_0" departPos="4.60" departSpeed="30.89" departDelay="0.00" arrival="179.00" arrivalLane="E0_0" arrivalPos="4000.00" arrivalSpeed="16.67" duration="164.00" routeLength="3995.40" waitingTime="0.00" waitingCount="0" stopTime="0.00" timeLoss="1.51" rerouteNo="0" devices="tripinfo_f_cav.15 fcd_f_cav.15" vType="cav@f_cav.15" speedFactor="0.93" vaporized=""/>
    <tripinfo id="f_cav.21" depart="21.00" departLane="E0_2" departPos="4.60" departSpeed="33.33" departDelay="0.00" arrival="179.20" arrivalLane="E0_2" arrivalPos="4000.00" arrivalSpeed="16.67" duration="158.20" routeLength="3995.40" waitingTime="0.00" waitingCount="0" stopTime="0.00" timeLoss="2.37" rerouteNo="0" devices="tripinfo_f_cav.21 fcd_f_cav.21" vType="cav@f_cav.21" speedFactor="1.01" vaporized=""/>
    <tripinfo id="f_cav.18" depart="18.00" departLane="E0_0" departPos="4.60" departSpeed="31.20" departDelay="0.00" arrival="182.00" arrivalLane="E0_0" arrivalPos="4000.00" arrivalSpeed="16.67" duration="164.00" routeLength="3995.40" waitingTime="0.00" waitingCount="0" stopTime="0.00" timeLoss="2.37" rerouteNo="0" devices="tripinfo_f_cav.18 fcd_f_cav.18" vType="cav@f_cav.18" speedFactor="0.94" vaporized=""/>
    <tripinfo id="f_cav.22" depart="22.00" departLane="E0_0" departPos="4.60" departSpeed="32.50" departDelay="0.00" arrival="183.90" arrivalLane="E0_0" arrivalPos="4000.00" arrivalSpeed="16.67" duration="161.90" routeLength="3995.40" waitingTime="0.00" waitingCount="0" stopTime="0.00" timeLoss="3.92" rerouteNo="0" devices="tripinfo_f_cav.22 fcd_f_cav.22" vType="cav@f_cav.22" speedFactor="0.97" vaporized=""/>
    <tripinfo id="f_cav.23" depart="23.00" departLane="E0_0" departPos="4.60" departSpeed="29.65" departDelay="0.00" arrival="193.20" arrivalLane="E0_0" arrivalPos="4000.00" arrivalSpeed="16.67" duration="170.20" routeLength="3995.40" waitingTime="0.00" waitingCount="0" stopTime="0.00" timeLoss="3.96" rerouteNo="0" devices="tripinfo_f_cav.23 fcd_f_cav.23" vType="cav@f_cav.23" speedFactor="0.89" vaporized=""/>
    <tripinfo id="f_cav.24" depart="24.00" departLane="E0_2" departPos="4.60" departSpeed="27.52" departDelay="0.00" arrival="197.20" arrivalLane="E0_2" arrivalPos="4000.00" arrivalSpeed="16.67" duration="173.20" routeLength="3995.40" waitingTime="0.00" waitingCount="0" stopTime="0.00" timeLoss="-0.36" rerouteNo="0" devices="tripinfo_f_cav.24 fcd_f_cav.24" vType="cav@f_cav.24" speedFactor="0.83" vaporized=""/>
    <tripinfo id="f_cav.25" depart="25.00" departLane="E0_0" departPos="4.60" departSpeed="29.08" departDelay="0.00" arrival="198.10" arrivalLane="E0_0" arrivalPos="4000.00" arrivalSpeed="16.67" duration="173.10" routeLength="3995.40" waitingTime="0.00" waitingCount="0" stopTime="0.00" timeLoss="4.95" rerouteNo="0" devices="tripinfo_f_cav.25 fcd_f_cav.25" vType="cav@f_cav.25" speedFactor="0.87" vaporized=""/>
    <tripinfo id="f_cav.27" depart="27.00" departLane="E0_2" departPos="4.60" departSpeed="31.62" departDelay="0.00" arrival="198.90" arrivalLane="E0_2" arrivalPos="4000.00" arrivalSpeed="16.67" duration="171.90" routeLength="3995.40" waitingTime="0.00" waitingCount="0" stopTime="0.00" timeLoss="11.51" rerouteNo="0" devices="tripinfo_f_cav.27 fcd_f_cav.27" vType="cav@f_cav.27" speedFactor="0.95" vaporized=""/>
    <tripinfo id="f_cav.29" depart="29.00" departLane="E0_0" departPos="4.60" departSpeed="31.04" departDelay="0.00" arrival="199.80" arrivalLane="E0_0" arrivalPos="4000.00" arrivalSpeed="16.67" duration="170.80" routeLength="3995.40" waitingTime="0.00" waitingCount="0" stopTime="0.00" timeLoss="8.70" rerouteNo="0" devices="tripinfo_f_cav.29 fcd_f_cav.29" vType="cav@f_cav.29" speedFactor="0.93" vaporized=""/>
    <tripinfo id="f_cav.32" depart="32.00" departLane="E0_2" departPos="4.60" departSpeed="33.33" departDelay="0.00" arrival="200.60" arrivalLane="E0_2" arrivalPos="4000.00" arrivalSpeed="16.67" duration="168.60" routeLength="3995.40" waitingTime="0.00" waitingCount="0" stopTime="0.00" timeLoss="12.78" rerouteNo="0" devices="tripinfo_f_cav.32 fcd_f_cav.32" vType="cav@f_cav.32" speedFactor="1.01" vaporized=""/>
    <tripinfo id="f_cav.31" depart="31.00" departLane="E0_0" departPos="4.60" departSpeed="33.33" departDelay="0.00" arrival="201.40" arrivalLane="E0_0" arrivalPos="4000.00" arrivalSpeed="16.67" duration="170.40" routeLength="3995.40" waitingTime="0.00" waitingCount="0" stopTime="0.00" timeLoss="14.55" rerouteNo="0" devices="tripinfo_f_cav.31 fcd_f_cav.31" vType="cav@f_cav.31" speedFactor="1.15" vaporized=""/>
    <tripinfo id="f_cav.33" depart="33.00" departLane="E0_2" departPos="4.60" departSpeed="32.60" departDelay="0.00" arrival="202.30" arrivalLane="E0_2" arrivalPos="4000.00" arrivalSpeed="16.67" duration="169.30" routeLength="3995.40" waitingTime="0.00" waitingCount="0" stopTime="0.00" timeLoss="13.42" rerouteNo="0" devices="tripinfo_f_cav.33 fcd_f_cav.33" vType="cav@f_cav.33" speedFactor="1.17" vaporized=""/>
    <tripinfo id="f_cav.35" depart="35.00" departLane="E0_2" departPos="4.60" departSpeed="33.33" departDelay="0.00" arrival="203.90" arrivalLane="E0_2" arrivalPos="4000.00" arrivalSpeed="16.67" duration="168.90" routeLength="3995.40" waitingTime="0.00" waitingCount="0" stopTime="0.00" timeLoss="13.09" rerouteNo="0" devices="tripinfo_f_cav.35 fcd_f_cav.35" vType="cav@f_cav.35" speedFactor="1.02" vaporized=""/>
    <tripinfo id="f_cav.43" depart="43.00" departLane="E0_0" departPos="4.60" departSpeed="33.33" departDelay="0.00" arrival="205.00" arrivalLane="E0_0" arrivalPos="4000.00" arrivalSpeed="16.67" duration="162.00" routeLength="3995.40" waitingTime="0.00" waitingCount="0" stopTime="0.00" timeLoss="6.09" rerouteNo="0" devices="tripinfo_f_cav.43 fcd_f_cav.43" vType="cav@f_cav.43" speedFactor="1.04" vaporized=""/>
    <tripinfo id="f_cav.38" depart="38.00" departLane="E0_2" departPos="4.60" departSpeed="33.33" departDelay="0.00" arrival="205.50" arrivalLane="E0_2" arrivalPos="4000.00" arrivalSpeed="16.67" duration="167.50" routeLength="3995.40" waitingTime="0.00" waitingCount="0" stopTime="0.00" timeLoss="11.68" rerouteNo="0" devices="tripinfo_f_cav.38 fcd_f_cav.38" vType="cav@f_cav.38" speedFactor="1.10" vaporized=""/>
    <tripinfo id="f_cav.41" depart="41.00" departLane="E0_2" departPos="4.60" departSpeed="31.90" departDelay="0.00" arrival="207.10" arrivalLane="E0_2" arrivalPos="4000.00" arrivalSpeed="16.67" duration="166.10" routeLength="3995.40" waitingTime="0.00" waitingCount="0" stopTime="0.00" timeLoss="6.45" rerouteNo="0" devices="tripinfo_f_cav.41 fcd_f_cav.41" vType="cav@f_cav.41" speedFactor="0.96" vaporized=""/>
    <tripinfo id="f_cav.51" depart="51.00" departLane="E0_2" departPos="4.60" departSpeed="33.33" departDelay="0.00" arrival="209.30" arrivalLane="E0_2" arrivalPos="4000.00" arrivalSpeed="16.67" duration="158.30" routeLength="3995.40" waitingTime="0.00" waitingCount="0" stopTime="0.00" timeLoss="2.39" rerouteNo="0" devices="tripinfo_f_cav.51 fcd_f_cav.51" vType="cav@f_cav.51" speedFactor="1.17" vaporized=""/>
    <tripinfo id="f_cav.52" depart="52.00" departLane="E0_2" departPos="4.60" departSpeed="32.60" departDelay="0.00" arrival="211.00" arrivalLane="E0_2" arrivalPos="4000.00" arrivalSpeed="16.67" duration="159.00" routeLength="3995.40" waitingTime="0.00" waitingCount="0" stopTime="0.00" timeLoss="3.11" rerouteNo="0" devices="tripinfo_f_cav.52 fcd_f_cav.52" vType="cav@f_cav.52" speedFactor="1.02" vaporized=""/>
    <tripinfo id="f_cav.53" depart="53.00" departLane="E0_2" departPos="4.60" departSpeed="30.07" departDelay="0.00" arrival="212.70" arrivalLane="E0_2" arrivalPos="4000.00" arrivalSpeed="16.67" duration="159.70" routeLength="3995.40" waitingTime="0.00" waitingCount="0" stopTime="0.00" timeLoss="3.79" rerouteNo="0" devices="tripinfo_f_cav.53 fcd_f_cav.53" vType="cav@f_cav.53" speedFactor="1.10" vaporized=""/>
    <tripinfo id="f_cav.55" depart="55.00" departLane="E0_2" departPos="4.60" departSpeed="32.89" departDelay="0.00" arrival="214.40" arrivalLane="E0_2" arrivalPos="4000.00" arrivalSpeed="16.67" duration="159.40" routeLength="3995.40" waitingTime="0.00" waitingCount="0" stopTime="0.00" timeLoss="3.18" rerouteNo="0" devices="tripinfo_f_cav.55 fcd_f_cav.55" vType="cav@f_cav.55" speedFactor="1.00" vaporized=""/>
    <tripinfo id="f_cav.57" depart="57.00" departLane="E0_2" departPos="4.60" departSpeed="33.33" departDelay="0.00" arrival="216.10" arrivalLane="E0_2" arrivalPos="4000.00" arrivalSpeed="16.67" duration="159.10" routeLength="3995.40" waitingTime="0.00" waitingCount="0" stopTime="0.00" timeLoss="3.28" rerouteNo="0" devices="tripinfo_f_cav.57 fcd_f_cav.57" vType="cav@f_cav.57" speedFactor="1.14" vaporized=""/>
    <tripinfo id="f_cav.58" depart="58.00" departLane="E0_2" departPos="4.60" departSpeed="32.60" departDelay="0.00" arrival="217.80" arrivalLane="E0_2" arrivalPos="4000.00" arrivalSpeed="16.67" duration="159.80" routeLength="3995.40" waitingTime="0.00" waitingCount="0" stopTime="0.00" timeLoss="3.90" rerouteNo="0" devices="tripinfo_f_cav.58 fcd_f_cav.58" vType="cav@f_cav.58" speedFactor="1.02" vaporized=""/>
    <tripinfo id="f_cav.47" depart="47.00" departLane="E0_0" departPos="4.60" departSpeed="30.01" departDelay="0.00" arrival="219.20" arrivalLane="E0_0" arrivalPos="4000.00" arrivalSpeed="16.67" duration="172.20" routeLength="3995.40" waitingTime="0.00" waitingCount="0" stopTime="0.00" timeLoss="7.09" rerouteNo="0" devices="tripinfo_f_cav.47 fcd_f_cav.47" vType="cav@f_cav.47" speedFactor="0.90" vaporized=""/>
    <tripinfo id="f_cav.60" depart="60.00" departLane="E0_2" departPos="4.60" departSpeed="33.33" departDelay="0.00" arrival="219.40" arrivalLane="E0_2" arrivalPos="4000.00" arrivalSpeed="16.67" duration="159.40" routeLength="3995.40" waitingTime="0.00" waitingCount="0" stopTime="0.00" timeLoss="3.59" rerouteNo="0" devices="tripinfo_f_cav.60 fcd_f_cav.60" vType="cav@f_cav.60" speedFactor="1.08" vaporized=""/>
    <tripinfo id="f_cav.62" depart="62.00" departLane="E0_2" departPos="4.60" departSpeed="33.33" departDelay="0.00" arrival="221.20" arrivalLane="E0_2" arrivalPos="4000.00" arrivalSpeed="16.67" duration="159.20" routeLength="3995.40" waitingTime="0.00" waitingCount="0" stopTime="0.00" timeLoss="3.32" rerouteNo="0" devices="tripinfo_f_cav.62 fcd_f_cav.62" vType="cav@f_cav.62" speedFactor="1.02" vaporized=""/>
    <tripinfo id="f_cav.63" depart="63.00" departLane="E0_2" departPos="4.60" departSpeed="32.60" departDelay="0.00" arrival="223.00" arrivalLane="E0_2" arrivalPos="4000.00" arrivalSpeed="16.67" duration="160.00" routeLength="3995.40" waitingTime="0.00" waitingCount="0" stopTime="0.00" timeLoss="3.07" rerouteNo="0" devices="tripinfo_f_cav.63 fcd_f_cav.63" vType="cav@f_cav.63" speedFactor="0.99" vaporized=""/>
    <tripinfo id="f_cav.49" depart="49.00" departLane="E0_0" departPos="4.60" departSpeed="28.34" departDelay="0.00" arrival="224.60" arrivalLane="E0_0" arrivalPos="4000.00" arrivalSpeed="16.67" duration="175.60" routeLength="3995.40" waitingTime="0.00" waitingCount="0" stopTime="0.00" timeLoss="4.98" rerouteNo="0" devices="tripinfo_f_cav.49 fcd_f_cav.49" vType="cav@f_cav.49" speedFactor="0.85" vaporized=""/>
    <tripinfo id="f_cav.68" depart="68.00" departLane="E0_2" departPos="4.60" departSpeed="33.33" departDelay="0.00" arrival="225.50" arrivalLane="E0_2" arrivalPos="4000.00" arrivalSpeed="16.67" duration="157.50" routeLength="3995.40" waitingTime="0.00" waitingCount="0" stopTime="0.00" timeLoss="1.67" rerouteNo="0" devices="tripinfo_f_cav.68 fcd_f_cav.68" vType="cav@f_cav.68" speedFactor="1.04" vaporized=""/>
    <tripinfo id="f_cav.50" depart="50.00" departLane="E0_0" departPos="4.60" departSpeed="27.50" departDelay="0.00" arrival="226.20" arrivalLane="E0_0" arrivalPos="4000.00" arrivalSpeed="16.67" duration="176.20" routeLength="3995.40" waitingTime="0.00" waitingCount="0" stopTime="0.00" timeLoss="6.10" rerouteNo="0" devices="tripinfo_f_cav.50 fcd_f_cav.50" vType="cav@f_cav.50" speedFactor="0.85" vaporized=""/>
    <tripinfo id="f_cav.70" depart="70.00" departLane="E0_2" departPos="4.60" departSpeed="33.33" departDelay="0.00" arrival="227.70" arrivalLane="E0_2" arrivalPos="4000.00" arrivalSpeed="16.67" duration="157.70" routeLength="3995.40" waitingTime="0.00" waitingCount="0" stopTime="0.00" timeLoss="1.78" rerouteNo="0" devices="tripinfo_f_cav.70 fcd_f_cav.70" vType="cav@f_cav.70" speedFactor="1.02" vaporized=""/>
    <tripinfo id="f_cav.61" depart="61.00" departLane="E0_0" departPos="4.60" departSpeed="33.33" departDelay="0.00" arrival="227.80" arrivalLane="E0_0" arrivalPos="4000.00" arrivalSpeed="16.67" duration="166.80" routeLength="3995.40" waitingTime="0.00" waitingCount="0" stopTime="0.00" timeLoss="10.95" rerouteNo="0" devices="tripinfo_f_cav.61 fcd_f_cav.61" vType="cav@f_cav.61" speedFactor="1.12" vaporized=""/>
    <tripinfo id="f_cav.74" depart="74.00" departLane="E0_2" departPos="4.60" departSpeed="31.83" departDelay="0.00" arrival="233.30" arrivalLane="E0_2" arrivalPos="4000.00" arrivalSpeed="16.67" duration="159.30" routeLength="3995.40" waitingTime="0.00" waitingCount="0" stopTime="0.00" timeLoss="-0.52" rerouteNo="0" devices="tripinfo_f_cav.74 fcd_f_cav.74" vType="cav@f_cav.74" speedFactor="0.96" vaporized=""/>
    <tripinfo id="f_cav.77" depart="77.00" departLane="E0_2" departPos="4.60" departSpeed="32.73" departDelay="0.00" arrival="235.10" arrivalLane="E0_2" arrivalPos="4000.00" arrivalSpeed="16.67" duration="158.10" routeLength="3995.40" waitingTime="0.00" waitingCount="0" stopTime="0.00" timeLoss="0.68" rerouteNo="0" devices="tripinfo_f_cav.77 fcd_f_cav.77" vType="cav@f_cav.77" speedFactor="0.98" vaporized=""/>
    <tripinfo id="f_cav.65" depart="65.00" departLane="E0_0" departPos="4.60" departSpeed="29.41" departDelay="0.00" arrival="237.20" arrivalLane="E0_0" arrivalPos="4000.00" arrivalSpeed="16.67" duration="172.20" routeLength="3995.40" waitingTime="0.00" waitingCount="0" stopTime="0.00" timeLoss="5.15" rerouteNo="0" devices="tripinfo_f_cav.65 fcd_f_cav.65" vType="cav@f_cav.65" speedFactor="0.88" vaporized=""/>
    <tripinfo id="f_cav.81" depart="81.00" departLane="E0_2" departPos="4.60" departSpeed="33.27" departDelay="0.00" arrival="237.80" arrivalLane="E0_2" arrivalPos="4000.00" arrivalSpeed="16.67" duration="156.80" routeLength="3995.40" waitingTime="0.00" waitingCount="0" stopTime="0.00" timeLoss="0.75" rerouteNo="0" devices="tripinfo_f_cav.81 fcd_f_cav.81" vType="cav@f_cav.81" speedFactor="1.00" vaporized=""/>
    <tripinfo id="f_cav.67" depart="67.00" departLane="E0_0" departPos="4.60" departSpeed="30.48" departDelay="0.00" arrival="239.00" arrivalLane="E0_0" arrivalPos="4000.00" arrivalSpeed="16.67" duration="172.00" routeLength="3995.40" waitingTime="0.00" waitingCount="0" stopTime="0.00" timeLoss="8.25" rerouteNo="0" devices="tripinfo_f_cav.67 fcd_f_cav.67" vType="cav@f_cav.67" speedFactor="0.91" vaporized=""/>
    <tripinfo id="f_cav.82" depart="82.00" departLane="E0_2" departPos="4.60" departSpeed="32.54" departDelay="0.00" arrival="239.60" arrivalLane="E0_2" arrivalPos="4000.00" arrivalSpeed="16.67" duration="157.60" routeLength="3995.40" waitingTime="0.00" waitingCount="0" stopTime="0.00" timeLoss="1.77" rerouteNo="0" devices="tripinfo_f_cav.82 fcd_f_cav.82" vType="cav@f_cav.82" speedFactor="1.02" vaporized=""/>
    <tripinfo id="f_cav.69" depart="69.00" departLane="E0_0" departPos="4.60" departSpeed="33.33" departDelay="0.00" arrival="240.70" arrivalLane="E0_0" arrivalPos="4000.00" arrivalSpeed="16.67" duration="171.70" routeLength="3995.40" waitingTime="0.00" waitingCount="0" stopTime="0.00" timeLoss="15.86" rerouteNo="0" devices="tripinfo_f_cav.69 fcd_f_cav.69" vType="cav@f_cav.69" speedFactor="1.02" vaporized=""/>
    <tripinfo id="f_cav.84" depart="84.00" departLane="E0_2" departPos="4.60" departSpeed="33.33" departDelay="0.00" arrival="241.60" arrivalLane="E0_2" arrivalPos="4000.00" arrivalSpeed="16.67" duration="157.60" routeLength="3995.40" waitingTime="0.00" waitingCount="0" stopTime="0.00" timeLoss="1.78" rerouteNo="0" devices="tripinfo_f_cav.84 fcd_f_cav.84" vType="cav@f_cav.84" speedFactor="1.15" vaporized=""/>
    <tripinfo id="f_cav.72" depart="72.00" departLane="E0_0" departPos="4.60" departSpeed="31.33" departDelay="0.00" arrival="242.40" arrivalLane="E0_0" arrivalPos="4000.00" arrivalSpeed="16.67" duration="170.40" routeLength="3995.40" waitingTime="0.00" waitingCount="0" stopTime="0.00" timeLoss="9.15" rerouteNo="0" devices="tripinfo_f_cav.72 fcd_f_cav.72" vType="cav@f_cav.72" speedFactor="0.94" vaporized=""/>
    <tripinfo id="f_cav.73" depart="73.00" departLane="E0_0" departPos="4.60" departSpeed="30.57" departDelay="0.00" arrival="244.10" arrivalLane="E0_0" arrivalPos="4000.00" arrivalSpeed="16.67" duration="171.10" routeLength="3995.40" waitingTime="0.00" waitingCount="0" stopTime="0.00" timeLoss="15.18" rerouteNo="0" devices="tripinfo_f_cav.73 fcd_f_cav.73" vType="cav@f_cav.73" speedFactor="1.06" vaporized=""/>
    <tripinfo id="f_cav.87" depart="87.00" departLane="E0_2" departPos="4.60" departSpeed="33.33" departDelay="0.00" arrival="244.30" arrivalLane="E0_2" arrivalPos="4000.00" arrivalSpeed="16.67" duration="157.30" routeLength="3995.40" waitingTime="0.00" waitingCount="0" stopTime="0.00" timeLoss="1.38" rerouteNo="0" devices="tripinfo_f_cav.87 fcd_f_cav.87" vType="cav@f_cav.87" speedFactor="1.04" vaporized=""/>
    <tripinfo id="f_cav.76" depart="76.00" departLane="E0_0" departPos="4.60" departSpeed="33.33" departDelay="0.00" arrival="245.70" arrivalLane="E0_0" arrivalPos="4000.00" arrivalSpeed="16.67" duration="169.70" routeLength="3995.40" waitingTime="0.00" waitingCount="0" stopTime="0.00" timeLoss="13.85" rerouteNo="0" devices="tripinfo_f_cav.76 fcd_f_cav.76" vType="cav@f_cav.76" speedFactor="1.03" vaporized=""/>
    <tripinfo id="f_cav.83" depart="83.00" departLane="E0_0" departPos="4.60" departSpeed="32.23" departDelay="0.00" arrival="248.80" arrivalLane="E0_0" arrivalPos="4000.00" arrivalSpeed="16.67" duration="165.80" routeLength="3995.40" waitingTime="0.00" waitingCount="0" stopTime="0.00" timeLoss="7.03" rerouteNo="0" devices="tripinfo_f_cav.83 fcd_f_cav.83" vType="cav@f_cav.83" speedFactor="0.97" vaporized=""/>
    <tripinfo id="f_cav.85" depart="85.00" departLane="E0_0" departPos="4.60" departSpeed="32.53" departDelay="0.00" arrival="250.50" arrivalLane="E0_0" arrivalPos="4000.00" arrivalSpeed="16.67" duration="165.50" routeLength="3995.40" waitingTime="0.00" waitingCount="0" stopTime="0.00" timeLoss="7.58" rerouteNo="0" devices="tripinfo_f_cav.85 fcd_f_cav.85" vType="cav@f_cav.85" speedFactor="0.98" vaporized=""/>
    <tripinfo id="f_cav.86" depart="86.00" departLane="E0_0" departPos="4.60" departSpeed="31.79" departDelay="0.00" arrival="252.20" arrivalLane="E0_0" arrivalPos="4000.00" arrivalSpeed="16.67" duration="166.20" routeLength="3995.40" waitingTime="0.00" waitingCount="0" stopTime="0.00" timeLoss="10.35" rerouteNo="0" devices="tripinfo_f_cav.86 fcd_f_cav.86" vType="cav@f_cav.86" speedFactor="1.00" vaporized=""/>
    <tripinfo id="f_cav.88" depart="88.00" departLane="E0_0" departPos="4.60" departSpeed="33.33" departDelay="0.00" arrival="253.90" arrivalLane="E0_0" arrivalPos="4000.00" arrivalSpeed="16.67" duration="165.90" routeLength="3995.40" waitingTime="0.00" waitingCount="0" stopTime="0.00" timeLoss="9.99" rerouteNo="0" devices="tripinfo_f_cav.88 fcd_f_cav.88" vType="cav@f_cav.88" speedFactor="1.01" vaporized=""/>
    <tripinfo id="f_cav.93" depart="93.00" departLane="E0_2" departPos="4.60" departSpeed="30.71" departDelay="0.00" arrival="255.40" arrivalLane="E0_2" arrivalPos="4000.00" arrivalSpeed="16.67" duration="162.40" routeLength="3995.40" waitingTime="0.00" waitingCount="0" stopTime="0.00" timeLoss="-0.62" rerouteNo="0" devices="tripinfo_f_cav.93 fcd_f_cav.93" vType="cav@f_cav.93" speedFactor="0.92" vaporized=""/>
    <tripinfo id="f_cav.94" depart="94.00" departLane="E0_2" departPos="4.60" departSpeed="29.93" departDelay="0.00" arrival="257.10" arrivalLane="E0_2" arrivalPos="4000.00" arrivalSpeed="16.67" duration="163.10" routeLength="3995.40" waitingTime="0.00" waitingCount="0" stopTime="0.00" timeLoss="7.28" rerouteNo="0" devices="tripinfo_f_cav.94 fcd_f_cav.94" vType="cav@f_cav.94" speedFactor="1.09" vaporized=""/>
    <tripinfo id="f_cav.98" depart="98.00" departLane="E0_2" departPos="4.60" departSpeed="33.33" departDelay="0.00" arrival="258.90" arrivalLane="E0_2" arrivalPos="4000.00" arrivalSpeed="16.67" duration="160.90" routeLength="3995.40" waitingTime="0.00" waitingCount="0" stopTime="0.00" timeLoss="5.08" rerouteNo="0" devices="tripinfo_f_cav.98 fcd_f_cav.98" vType="cav@f_cav.98" speedFactor="1.12" vaporized=""/>
    <tripinfo id="f_cav.101" depart="101.00" departLane="E0_2" departPos="4.60" departSpeed="31.89" departDelay="0.00" arrival="261.60" arrivalLane="E0_2" arrivalPos="4000.00" arrivalSpeed="16.67" duration="160.60" routeLength="3995.40" waitingTime="0.00" waitingCount="0" stopTime="0.00" timeLoss="0.93" rerouteNo="0" devices="tripinfo_f_cav.101 fcd_f_cav.101" vType="cav@f_cav.101" speedFactor="0.96" vaporized=""/>
    <tripinfo id="f_cav.91" depart="91.00" departLane="E0_0" departPos="4.60" departSpeed="29.72" departDelay="0.00" arrival="263.30" arrivalLane="E0_0" arrivalPos="4000.00" arrivalSpeed="16.67" duration="172.30" routeLength="3995.40" waitingTime="0.00" waitingCount="0" stopTime="0.00" timeLoss="6.29" rerouteNo="0" devices="tripinfo_f_cav.91 fcd_f_cav.91" vType="cav@f_cav.91" speedFactor="0.89" vaporized=""/>
    <tripinfo id="f_cav.103" depart="103.00" departLane="E0_2" departPos="4.60" departSpeed="31.75" departDelay="0.00" arrival="264.10" arrivalLane="E0_2" arrivalPos="4000.00" arrivalSpeed="16.67" duration="161.10" routeLength="3995.40" waitingTime="0.00" waitingCount="0" stopTime="0.00" timeLoss="1.06" rerouteNo="0" devices="tripinfo_f_cav.103 fcd_f_cav.103" vType="cav@f_cav.103" speedFactor="0.95" vaporized=""/>
    <tripinfo id="f_cav.109" depart="109.00" departLane="E0_2" departPos="4.60" departSpeed="31.98" departDelay="0.00" arrival="268.40" arrivalLane="E0_2" arrivalPos="4000.00" arrivalSpeed="16.67" duration="159.40" routeLength="3995.40" waitingTime="0.00" waitingCount="0" stopTime="0.00" timeLoss="0.05" rerouteNo="0" devices="tripinfo_f_cav.109 fcd_f_cav.109" vType="cav@f_cav.109" speedFactor="0.96" vaporized=""/>
    <tripinfo id="f_cav.112" depart="112.00" departLane="E0_2" departPos="4.60" departSpeed="33.33" departDelay="0.00" arrival="270.20" arrivalLane="E0_2" arrivalPos="4000.00" arrivalSpeed="16.67" duration="158.20" routeLength="3995.40" waitingTime="0.00" waitingCount="0" stopTime="0.00" timeLoss="2.36" rerouteNo="0" devices="tripinfo_f_cav.112 fcd_f_cav.112" vType="cav@f_cav.112" speedFactor="1.10" vaporized=""/>
    <tripinfo id="f_cav.92" depart="92.00" departLane="E0_0" departPos="4.60" departSpeed="27.78" departDelay="0.00" arrival="270.90" arrivalLane="E0_0" arrivalPos="4000.00" arrivalSpeed="16.67" duration="178.90" routeLength="3995.40" waitingTime="0.00" waitingCount="0" stopTime="0.00" timeLoss="6.32" rerouteNo="0" devices="tripinfo_f_cav.92 fcd_f_cav.92" vType="cav@f_cav.92" speedFactor="0.83" vaporized=""/>
    <tripinfo id="f_cav.114" depart="114.00" departLane="E0_2" departPos="4.60" departSpeed="33.33" departDelay="0.00" arrival="272.10" arrivalLane="E0_2" arrivalPos="4000.00" arrivalSpeed="16.67" duration="158.10" routeLength="3995.40" waitingTime="0.00" waitingCount="0" stopTime="0.00" timeLoss="2.19" rerouteNo="0" devices="tripinfo_f_cav.114 fcd_f_cav.114" vType="cav@f_cav.114" speedFactor="1.10" vaporized=""/>
    <tripinfo id="f_cav.99" depart="99.00" departLane="E0_0" departPos="4.60" departSpeed="33.33" departDelay="0.00" arrival="272.60" arrivalLane="E0_0" arrivalPos="4000.00" arrivalSpeed="16.67" duration="173.60" routeLength="3995.40" waitingTime="0.00" waitingCount="0" stopTime="0.00" timeLoss="17.76" rerouteNo="0" devices="tripinfo_f_cav.99 fcd_f_cav.99" vType="cav@f_cav.99" speedFactor="1.10" vaporized=""/>
    <tripinfo id="f_cav.100" depart="100.00" departLane="E0_0" departPos="4.60" departSpeed="32.60" departDelay="0.00" arrival="274.30" arrivalLane="E0_0" arrivalPos="4000.00" arrivalSpeed="16.67" duration="174.30" routeLength="3995.40" waitingTime="0.00" waitingCount="0" stopTime="0.00" timeLoss="18.37" rerouteNo="0" devices="tripinfo_f_cav.100 fcd_f_cav.100" vType="cav@f_cav.100" speedFactor="1.06" vaporized=""/>